 Gaussian 09, Revision B.01,
 Gaussian 09:  EM64L-G09RevB.01 12-Aug-2010

 ------------------------------
 # opt freq 6-31++g(d,p) wb97xd
 ------------------------------

 -------------------
 Title Card Required
 -------------------
 Symbolic Z-matrix:
 Charge =  0 Multiplicity = 1

 SCF Done:  E(RwB97XD) =  -132.969251373     A.U. after   11 cycles
 SCF Done:  E(RwB97XD) =  -132.969074502     A.U. after   10 cycles
 SCF Done:  E(RwB97XD) =  -132.969333031     A.U. after   10 cycles
 SCF Done:  E(RwB97XD) =  -132.969417959     A.U. after    9 cycles
 SCF Done:  E(RwB97XD) =  -132.969443260     A.U. after    8 cycles
 SCF Done:  E(RwB97XD) =  -132.969450855     A.U. after    8 cycles
 SCF Done:  E(RwB97XD) =  -132.969456172     A.U. after    9 cycles
 SCF Done:  E(RwB97XD) =  -132.969457873     A.U. after    8 cycles
 SCF Done:  E(RwB97XD) =  -132.969462155     A.U. after    9 cycles
 SCF Done:  E(RwB97XD) =  -132.969463376     A.U. after    8 cycles
 SCF Done:  E(RwB97XD) =  -132.969463779     A.U. after    8 cycles
 Optimization completed.
    -- Stationary point found.

 1\1\GINC-NODE142\FOpt\RwB97XD\6-31++G(d,p)\H5N1O1\ROOT\18-Jan-2017\0\\
 # opt freq 6-31++g(d,p) wb97xd\\Title Card Required\\0,1\O,-1.20174825
 85,-1.739433996,-2.1368775825\H,-2.0411928726,-1.3803725748,-2.4311404
 493\H,-1.2561137937,-1.7990472721,-1.1636640971\N,-1.1198555055,-2.008
 1666122,0.7438586962\H,-1.0220503799,-1.1305608422,1.2430387948\H,-0.2
 533624091,-2.5247857963,0.8545243932\H,-1.8568817807,-2.5422979063,1.1
 913912446\\Version=EM64L-G09RevB.01\State=1-A\HF=-132.9694638\RMSD=3.3
 69e-09\RMSF=1.785e-05\Dipole=-0.4888811,0.0759615,1.4688323\Quadrupole

 Normal termination of Gaussian 09 at Wed Jan 18 09:38:07 2017.

 ----------------------------------------------------------------------
 #N Geom=AllCheck Guess=TCheck SCRF=Check GenChk RwB97XD/6-31++G(d,p) F
 req
 ----------------------------------------------------------------------

 Title Card Required
 -------------------
 Redundant internal coordinates taken from checkpoint file:
 /scratch/5352363/Gau-60326.chk
 Charge =  0 Multiplicity = 1

                         Standard orientation:
 ---------------------------------------------------------------------
 Center     Atomic      Atomic             Coordinates (Angstroms)
 Number     Number       Type             X           Y           Z
 ---------------------------------------------------------------------
      1          8           0       -1.528976    0.104786   -0.000045
      2          1           0       -1.917263   -0.772378   -0.000109
      3          1           0       -0.561063   -0.024814   -0.001542
      4          7           0        1.362714   -0.020479   -0.000184
      5          1           0        1.769207   -0.298666    0.886560
      6          1           0        1.587877    0.957694   -0.149956
      7          1           0        1.814051   -0.556770   -0.733312
 ---------------------------------------------------------------------

 SCF Done:  E(RwB97XD) =  -132.969463779     A.U. after    1 cycles

 The electronic state is 1-A.
 Alpha  occ. eigenvalues --  -19.24166 -14.46556  -1.07455  -0.98175  -0.58905
 Alpha  occ. eigenvalues --   -0.57877  -0.57610  -0.44517  -0.38010  -0.36475
 Alpha virt. eigenvalues --    0.03117   0.06910   0.07044   0.07555   0.11967
 Alpha virt. eigenvalues --    0.18916   0.21478   0.22142   0.24118   0.25870
 Alpha virt. eigenvalues --    0.26269   0.27438   0.29150   0.29791   0.33978

 Mulliken atomic charges:
              1
     1  O   -0.758764
     2  H    0.334435
     3  H    0.437693
     4  N   -0.976323
     5  H    0.318456
     6  H    0.328683
     7  H    0.315819
 Sum of Mulliken atomic charges =   0.00000

 Dipole moment (field-independent basis, Debye):
    X=              3.5965    Y=             -1.6078    Z=              0.0026  Tot=              3.9395
 Quadrupole moment (field-independent basis, Debye-Ang):
   XX=            -12.6763   YY=            -12.2326   ZZ=            -13.9824
   XY=              3.7383   XZ=             -0.0031   YZ=             -0.0041

  Exact polarizability:  23.795   0.794  17.204  -0.001   0.009  17.114
 Approx polarizability:  19.421   0.642  16.788  -0.004   0.008  15.824

 ******    1 imaginary frequencies (negative Signs) ******

                     1                      2                      3
                     A                      A                      A
 Frequencies --   -70.7356               192.5376               212.0199
 Red. masses --     1.0871                 1.4837                 1.0645
 Frc consts  --     0.0032                 0.0324                 0.0282
 IR Inten    --   105.0253                36.6431                37.5206

                     4                      5                      6
                     A                      A                      A
 Frequencies --   226.5163               498.9645               771.8947
 Red. masses --     2.1162                 1.0883                 1.0497
 Frc consts  --     0.0640                 0.1596                 0.3685
 IR Inten    --    33.4292               115.2037               166.9959

                     7                      8                      9
                     A                      A                      A
 Frequencies --  1096.7993              1654.8995              1678.4994
 Red. masses --     1.1836                 1.0786                 1.0656
 Frc consts  --     0.8389                 1.7404                 1.7688
 IR Inten    --   206.1538                94.7302                30.0873

                    10                     11                     12
                     A                      A                      A
 Frequencies --  1680.2764              3531.6054              3623.3000
 Red. masses --     1.0602                 1.0262                 1.0596
 Frc consts  --     1.7636                 7.5408                 8.1962
 IR Inten    --     1.5232                 3.1501               657.7006

                    13                     14                     15
                     A                      A                      A
 Frequencies --  3673.7911              3679.1324              3977.4677
 Red. masses --     1.0909                 1.0913                 1.0700
 Frc consts  --     8.6752                 8.7036                 9.9732
 IR Inten    --    13.1960                11.9872                66.3180

 - Thermochemistry -
 -------------------
 Temperature   298.150 Kelvin.  Pressure   1.00000 Atm.
 Atom     1 has atomic number  8 and mass  15.99491

 Molecular mass:    35.03711 amu.
 Principal axes and moments of inertia in atomic units:
                           1         2         3
     Eigenvalues --    12.23567 277.15692 279.70245
           X            0.99982   0.01904   0.00002
           Y           -0.01904   0.99982   0.00001
           Z           -0.00002  -0.00001   1.00000
 This molecule is an asymmetric top.
 Rotational symmetry number  1.
 Rotational temperatures (Kelvin)      7.07880     0.31251     0.30966
 Rotational constants (GHZ):         147.49834     6.51162     6.45236
    1 imaginary frequencies ignored.
 Zero-point vibrational energy     158491.5 (Joules/Mol)
                                   37.88037 (Kcal/Mol)
 Warning -- explicit consideration of   4 degrees of freedom as
           vibrations may cause significant error
 Vibrational temperatures:    277.02   305.05   325.91   717.90  1110.58
          (Kelvin)           1578.05  2381.03  2414.98  2417.54  5081.19
                             5213.11  5285.76  5293.44  5722.68

 Zero-point correction=                           0.060366 (Hartree/Particle)
 Thermal correction to Energy=                    0.065178
 Thermal correction to Enthalpy=                  0.066122
 Thermal correction to Gibbs Free Energy=         0.035154
 Sum of electronic and zero-point Energies=           -132.909098
 Sum of electronic and thermal Energies=              -132.904286
 Sum of electronic and thermal Enthalpies=            -132.903342
 Sum of electronic and thermal Free Energies=         -132.934310

                     E (Thermal)             CV                S
                      KCal/Mol        Cal/Mol-Kelvin    Cal/Mol-Kelvin
 Total                   40.900             13.790             65.178
 Electronic               0.000              0.000              0.000
 Translational            0.889              2.981             36.592
 Rotational               0.889              2.981             21.478
 Vibrational             39.122              7.829              7.108
 Vibration     1          0.635              1.850              2.203
 Vibration     2          0.643              1.823              2.026
 Vibration     3          0.650              1.801              1.906
 Vibration     4          0.854              1.252              0.661

 1\1\GINC-NODE142\Freq\RwB97XD\6-31++G(d,p)\H5N1O1\ROOT\18-Jan-2017\0\\
 #N Geom=AllCheck Guess=TCheck SCRF=Check GenChk RwB97XD/6-31++G(d,p) F
 req\\Title Card Required\\0,1\O,-1.2017482585,-1.739433996,-2.13687758
 25\H,-2.0411928726,-1.3803725748,-2.4311404493\H,-1.2561137937,-1.7990
 472721,-1.1636640971\N,-1.1198555055,-2.0081666122,0.7438586962\H,-1.0
 220503799,-1.1305608422,1.2430387948\H,-0.2533624091,-2.5247857963,0.8
 545243932\H,-1.8568817807,-2.5422979063,1.1913912446\\Version=EM64L-G0
 9RevB.01\State=1-A\HF=-132.9694638\RMSD=4.214e-10\RMSF=1.785e-05\ZeroP

 Normal termination of Gaussian 09 at Wed Jan 18 09:38:21 2017.
